# vtk DataFile Version 4.1
vtk output
ASCII
DATASET POLYDATA
POINTS 8 float
0.5 0.5 0.5 -0.5 0.5 0.5 0.5 -0.5 0.5 
-0.5 -0.5 0.5 0.5 0.5 -0.5 -0.5 0.5 -0.5 
0.5 -0.5 -0.5 -0.5 -0.5 -0.5 
POLYGONS 6 30
4 0 2 6 4 
4 4 5 1 0 
4 1 3 2 0 
4 1 5 7 3 
4 2 3 7 6 
4 7 5 4 6 

POINT_DATA 8
SCALARS scalars float
LOOKUP_TABLE default
0 1 2 3 4 5 6 7 
