# vtk DataFile Version 4.1
vtk output
ASCII
DATASET POLYDATA
POINTS 8 float
0.5 0.5 0.5 -0.5 0.5 0.5 0.5 -0.5 0.5 
-0.5 -0.5 0.5 0.5 0.5 -0.5 -0.5 0.5 -0.5 
0.5 -0.5 -0.5 -0.5 -0.5 -0.5 
POLYGONS 12 48
3 0 2 4 
3 2 6 4 
3 4 5 0 
3 5 1 0 
3 1 3 2 
3 1 2 0 
3 1 5 3 
3 5 7 3 
3 2 3 6 
3 3 7 6 
3 7 5 6 
3 5 4 6 

POINT_DATA 8
SCALARS scalars float
LOOKUP_TABLE default
0 1 2 3 4 5 6 7 
